4
CO3_2minus.log	Energy: -165659.2811417
O          2.73048        3.40932        7.27132
C          3.87888        3.81506        6.82310
O          4.66306        4.51185        7.58603
O          4.24344        3.52392        5.61225
