5
HCO3_1minus.log	Energy: -165969.3135227
O          2.75871        3.37596        7.26590
C          3.84734        3.83190        6.86519
O          4.70292        4.51782        7.47165
O          4.14630        3.52302        5.53376
H          5.00612        3.92938        5.34016
