6
HVO2_2minus.log	Energy: -234131.8753025
O         -0.78000        1.26323        0.68283
V         -1.03797       -0.44471       -0.07573
O         -1.76315       -0.26350       -1.56097
O         -2.02069       -1.25829        0.98582
O          0.44134       -1.18853       -0.23026
H         -0.23669        1.84775        0.13426
