5
VO4_3minus.log	Energy: -233810.9992065
O         -0.96172        1.29893        0.38141
V         -1.08140       -0.33371       -0.10929
O         -1.88922       -0.41280       -1.61278
O         -1.95918       -1.21851        1.06161
O          0.48417       -1.00012       -0.27049
