10
HVO4_CO3.log	Energy: -399793.5642125
C          3.04781        0.90847        0.40010
O          4.04894        0.88532        1.21812
O          1.84315        1.08442        0.86670
O         -0.47714        0.92086       -0.48380
V         -1.51292       -0.56654       -0.13647
O         -2.71500       -0.58883       -1.29294
O         -2.16757       -0.43861        1.39629
O         -0.54725       -1.92194       -0.23730
H          0.41100        0.96005       -0.02226
O          3.22973        0.76051       -0.87086
