10
VO4_HCO3.log	Energy: -399787.9156245
C          3.39365        0.49682        0.08058
O          4.62224        0.29152        0.28697
O          2.88512        1.53158       -0.43453
O         -2.42756        0.96175        0.41463
V         -1.65224       -0.46909       -0.07396
O         -2.00320       -0.77336       -1.70804
O         -2.20188       -1.76567        0.87760
O          0.05661       -0.29418        0.12326
O          2.56122       -0.51121        0.45934
H          1.56014       -0.31903        0.27679
